Program Version,EnergyPlus, Version 9.3.0-baff08990c, YMD=2021.05.19 07:51
1,5,Environment Title[],Latitude[deg],Longitude[deg],Time Zone[],Elevation[m]
2,8,Day of Simulation[],Month[],Day of Month[],DST Indicator[1=yes 0=no],Hour[],StartMinute[],EndMinute[],DayType
3,5,Cumulative Day of Simulation[],Month[],Day of Month[],DST Indicator[1=yes 0=no],DayType  ! When Daily Report Variables Requested
4,2,Cumulative Days of Simulation[],Month[]  ! When Monthly Report Variables Requested
5,1,Cumulative Days of Simulation[] ! When Run Period Report Variables Requested
6,1,Calendar Year of Simulation[] ! When Annual Report Variables Requested
8,1,Electricity:Facility [J] !TimeStep
20427,1,Gas:Facility [J] !TimeStep
End of Data Dictionary
1,SACRAMENTO METROPOLITAN AP ANN CLG .4% CONDNS DB=>MWB 1,  38.70,-121.58,  -8.00,   7.00
2,1, 7,21, 0, 1, 0.00,60.00,SummerDesignDay
8,386164781.83621129
20427,0.0
2,1, 7,21, 0, 2, 0.00,60.00,SummerDesignDay
8,380665325.551409
20427,0.0
2,1, 7,21, 0, 3, 0.00,60.00,SummerDesignDay
8,378017465.05384048
20427,0.0
2,1, 7,21, 0, 4, 0.00,60.00,SummerDesignDay
8,375876934.33514818
20427,87273352.72754097
2,1, 7,21, 0, 5, 0.00,60.00,SummerDesignDay
8,374049429.3759795
20427,0.0
2,1, 7,21, 0, 6, 0.00,60.00,SummerDesignDay
8,377422728.0080544
20427,0.0
2,1, 7,21, 0, 7, 0.00,60.00,SummerDesignDay
8,400656392.1118354
20427,0.0
2,1, 7,21, 0, 8, 0.00,60.00,SummerDesignDay
8,433861327.0129847
20427,87282695.96088083
2,1, 7,21, 0, 9, 0.00,60.00,SummerDesignDay
8,462795873.8790833
20427,0.0
2,1, 7,21, 0,10, 0.00,60.00,SummerDesignDay
8,481097448.9347354
20427,0.0
2,1, 7,21, 0,11, 0.00,60.00,SummerDesignDay
8,502006338.45885518
20427,87278335.98722321
2,1, 7,21, 0,12, 0.00,60.00,SummerDesignDay
8,517750918.2459853
20427,0.0
2,1, 7,21, 0,13, 0.00,60.00,SummerDesignDay
8,526348871.98121288
20427,0.0
2,1, 7,21, 0,14, 0.00,60.00,SummerDesignDay
8,545100214.1471127
20427,0.0
2,1, 7,21, 0,15, 0.00,60.00,SummerDesignDay
8,548152343.0223715
20427,87276446.28685242
2,1, 7,21, 0,16, 0.00,60.00,SummerDesignDay
8,539460258.5178878
20427,0.0
2,1, 7,21, 0,17, 0.00,60.00,SummerDesignDay
8,531226962.1823592
20427,0.0
2,1, 7,21, 0,18, 0.00,60.00,SummerDesignDay
8,506247252.50126919
20427,0.0
2,1, 7,21, 0,19, 0.00,60.00,SummerDesignDay
8,482682943.183273
20427,87283270.96089898
2,1, 7,21, 0,20, 0.00,60.00,SummerDesignDay
8,478936358.4931669
20427,0.0
2,1, 7,21, 0,21, 0.00,60.00,SummerDesignDay
8,463952101.3590235
20427,0.0
2,1, 7,21, 0,22, 0.00,60.00,SummerDesignDay
8,432065786.48231837
20427,87268624.91498849
2,1, 7,21, 0,23, 0.00,60.00,SummerDesignDay
8,421992074.6986459
20427,0.0
2,1, 7,21, 0,24, 0.00,60.00,SummerDesignDay
8,408605856.42170616
20427,0.0
1,SACRAMENTO METROPOLITAN AP ANN CLG .4% CONDNS WB=>MDB 1,  38.70,-121.58,  -8.00,   7.00
2,1, 7,21, 0, 1, 0.00,60.00,SummerDesignDay
8,380654384.6201433
20427,0.0
2,1, 7,21, 0, 2, 0.00,60.00,SummerDesignDay
8,375407084.8373803
20427,0.0
2,1, 7,21, 0, 3, 0.00,60.00,SummerDesignDay
8,372875191.54085698
20427,0.0
2,1, 7,21, 0, 4, 0.00,60.00,SummerDesignDay
8,370717354.95918306
20427,87273364.34421088
2,1, 7,21, 0, 5, 0.00,60.00,SummerDesignDay
8,368888597.2239327
20427,0.0
2,1, 7,21, 0, 6, 0.00,60.00,SummerDesignDay
8,372119656.92371299
20427,0.0
2,1, 7,21, 0, 7, 0.00,60.00,SummerDesignDay
8,393630633.40655437
20427,0.0
2,1, 7,21, 0, 8, 0.00,60.00,SummerDesignDay
8,427038736.90964838
20427,87283134.61062919
2,1, 7,21, 0, 9, 0.00,60.00,SummerDesignDay
8,455027725.7251328
20427,0.0
2,1, 7,21, 0,10, 0.00,60.00,SummerDesignDay
8,472663416.55058667
20427,0.0
2,1, 7,21, 0,11, 0.00,60.00,SummerDesignDay
8,492988600.1848098
20427,87278381.31916788
2,1, 7,21, 0,12, 0.00,60.00,SummerDesignDay
8,508266037.9290123
20427,0.0
2,1, 7,21, 0,13, 0.00,60.00,SummerDesignDay
8,516392850.86164656
20427,0.0
2,1, 7,21, 0,14, 0.00,60.00,SummerDesignDay
8,535105981.3998711
20427,0.0
2,1, 7,21, 0,15, 0.00,60.00,SummerDesignDay
8,538089385.6733531
20427,87276507.78306966
2,1, 7,21, 0,16, 0.00,60.00,SummerDesignDay
8,529467627.1112879
20427,0.0
2,1, 7,21, 0,17, 0.00,60.00,SummerDesignDay
8,521003234.2092288
20427,0.0
2,1, 7,21, 0,18, 0.00,60.00,SummerDesignDay
8,496393091.99174776
20427,0.0
2,1, 7,21, 0,19, 0.00,60.00,SummerDesignDay
8,473977438.8642016
20427,87283306.45572244
2,1, 7,21, 0,20, 0.00,60.00,SummerDesignDay
8,470956639.5039584
20427,0.0
2,1, 7,21, 0,21, 0.00,60.00,SummerDesignDay
8,456520517.76742169
20427,0.0
2,1, 7,21, 0,22, 0.00,60.00,SummerDesignDay
8,426068844.6966294
20427,87268169.05378504
2,1, 7,21, 0,23, 0.00,60.00,SummerDesignDay
8,416195455.01976659
20427,0.0
2,1, 7,21, 0,24, 0.00,60.00,SummerDesignDay
8,402854019.7045019
20427,0.0
1,SACRAMENTO METROPOLITAN AP ANN HTG 99.6% CONDNS DB 1,  38.70,-121.58,  -8.00,   7.00
2,1,12,21, 0, 1, 0.00,60.00,WinterDesignDay
8,234839418.00144399
20427,0.0
2,1,12,21, 0, 2, 0.00,60.00,WinterDesignDay
8,235531175.97061984
20427,0.0
2,1,12,21, 0, 3, 0.00,60.00,WinterDesignDay
8,236661736.6946477
20427,0.0
2,1,12,21, 0, 4, 0.00,60.00,WinterDesignDay
8,237569903.2072726
20427,87365453.04959214
2,1,12,21, 0, 5, 0.00,60.00,WinterDesignDay
8,237714673.64325939
20427,0.0
2,1,12,21, 0, 6, 0.00,60.00,WinterDesignDay
8,243672142.03178085
20427,0.0
2,1,12,21, 0, 7, 0.00,60.00,WinterDesignDay
8,263085061.9375094
20427,87369630.26585908
2,1,12,21, 0, 8, 0.00,60.00,WinterDesignDay
8,269039526.49231687
20427,0.0
2,1,12,21, 0, 9, 0.00,60.00,WinterDesignDay
8,268004642.52303163
20427,0.0
2,1,12,21, 0,10, 0.00,60.00,WinterDesignDay
8,263253898.86726458
20427,87354409.93810587
2,1,12,21, 0,11, 0.00,60.00,WinterDesignDay
8,261379900.77152638
20427,0.0
2,1,12,21, 0,12, 0.00,60.00,WinterDesignDay
8,261552549.35645277
20427,0.0
2,1,12,21, 0,13, 0.00,60.00,WinterDesignDay
8,259134444.29294683
20427,0.0
2,1,12,21, 0,14, 0.00,60.00,WinterDesignDay
8,260674373.38924668
20427,87368346.44413309
2,1,12,21, 0,15, 0.00,60.00,WinterDesignDay
8,259940004.94596718
20427,0.0
2,1,12,21, 0,16, 0.00,60.00,WinterDesignDay
8,259099390.7665166
20427,0.0
2,1,12,21, 0,17, 0.00,60.00,WinterDesignDay
8,261502467.1032063
20427,87362855.24249436
2,1,12,21, 0,18, 0.00,60.00,WinterDesignDay
8,265422880.11629347
20427,0.0
2,1,12,21, 0,19, 0.00,60.00,WinterDesignDay
8,264849540.9432724
20427,0.0
2,1,12,21, 0,20, 0.00,60.00,WinterDesignDay
8,267390183.1357376
20427,87357332.45968487
2,1,12,21, 0,21, 0.00,60.00,WinterDesignDay
8,266981802.67091248
20427,0.0
2,1,12,21, 0,22, 0.00,60.00,WinterDesignDay
8,251505298.83421708
20427,0.0
2,1,12,21, 0,23, 0.00,60.00,WinterDesignDay
8,251268559.87037084
20427,87367364.99754067
2,1,12,21, 0,24, 0.00,60.00,WinterDesignDay
8,248241894.7197856
20427,0.0
End of Data
 Number of Records Written=         144
